<?xml version="1.0"?>
<VTKFile type="UnstructuredGrid"  version="0.1"  >
<UnstructuredGrid>
<Piece  NumberOfPoints="4881" NumberOfCells="9600">
<Points>
<DataArray  type="Float64"  NumberOfComponents="3"  format="ascii">0 0 0  0.006907755278982136 0 0  0.01381551055796427 0 0  0.02072326583694641 0 0  0.02763102111592854 0 0  0.03453877639491068 0 0  0.04144653167389282 0 0  0.04835428695287496 0 0  0.05526204223185709 0 0  0.06216979751083922 0 0  0.06907755278982136 0 0  0.07598530806880351 0 0  0.08289306334778564 0 0  0.08980081862676777 0 0  0.09670857390574991 0 0  0.103616329184732 0 0  0.1105240844637142 0 0  0.1174318397426963 0 0  0.1243395950216784 0 0  0.1312473503006606 0 0  0.1381551055796427 0 0  0.1812473503006606 0 0  0.2243395950216784 0 0  0.2674318397426963 0 0  0.3105240844637142 0 0  0.3536163291847321 0 0  0.3967085739057499 0 0  0.4398008186267678 0 0  0.4828930633477856 0 0  0.5259853080688035 0 0  0.5690775527898213 0 0  0.6121697975108393 0 0  0.655262042231857 0 0  0.6983542869528749 0 0  0.7414465316738929 0 0  0.7845387763949107 0 0  0.8276310211159286 0 0  0.8707232658369465 0 0  0.9138155105579643 0 0  0.9569077552789821 0 0  1 0 0  0 0.025 0  0.006907755278982136 0.025 0  0.01381551055796427 0.025 0  0.02072326583694641 0.025 0  0.02763102111592854 0.025 0  0.03453877639491068 0.025 0  0.04144653167389282 0.025 0  0.04835428695287496 0.025 0  0.05526204223185709 0.025 0  0.06216979751083922 0.025 0  0.06907755278982136 0.025 0  0.07598530806880351 0.025 0  0.08289306334778564 0.025 0  0.08980081862676777 0.025 0  0.09670857390574991 0.025 0  0.103616329184732 0.025 0  0.1105240844637142 0.025 0  0.1174318397426963 0.025 0  0.1243395950216784 0.025 0  0.1312473503006606 0.025 0  0.1381551055796427 0.025 0  0.1812473503006606 0.025 0  0.2243395950216784 0.025 0  0.2674318397426963 0.025 0  0.3105240844637142 0.025 0  0.3536163291847321 0.025 0  0.3967085739057499 0.025 0  0.4398008186267678 0.025 0  0.4828930633477856 0.025 0  0.5259853080688035 0.025 0  0.5690775527898213 0.025 0  0.6121697975108393 0.025 0  0.655262042231857 0.025 0  0.6983542869528749 0.025 0  0.7414465316738929 0.025 0  0.7845387763949107 0.025 0  0.8276310211159286 0.025 0  0.8707232658369465 0.025 0  0.9138155105579643 0.025 0  0.9569077552789821 0.025 0  1 0.025 0  0 0.05 0  0.006907755278982136 0.05 0  0.01381551055796427 0.05 0  0.02072326583694641 0.05 0  0.02763102111592854 0.05 0  0.03453877639491068 0.05 0  0.04144653167389282 0.05 0  0.04835428695287496 0.05 0  0.05526204223185709 0.05 0  0.06216979751083922 0.05 0  0.06907755278982136 0.05 0  0.07598530806880351 0.05 0  0.08289306334778564 0.05 0  0.08980081862676777 0.05 0  0.09670857390574991 0.05 0  0.103616329184732 0.05 0  0.1105240844637142 0.05 0  0.1174318397426963 0.05 0  0.1243395950216784 0.05 0  0.1312473503006606 0.05 0  0.1381551055796427 0.05 0  0.1812473503006606 0.05 0  0.2243395950216784 0.05 0  0.2674318397426963 0.05 0  0.3105240844637142 0.05 0  0.3536163291847321 0.05 0  0.3967085739057499 0.05 0  0.4398008186267678 0.05 0  0.4828930633477856 0.05 0  0.5259853080688035 0.05 0  0.5690775527898213 0.05 0  0.6121697975108393 0.05 0  0.655262042231857 0.05 0  0.6983542869528749 0.05 0  0.7414465316738929 0.05 0  0.7845387763949107 0.05 0  0.8276310211159286 0.05 0  0.8707232658369465 0.05 0  0.9138155105579643 0.05 0  0.9569077552789821 0.05 0  1 0.05 0  0 0.075 0  0.006907755278982136 0.075 0  0.01381551055796427 0.075 0  0.02072326583694641 0.075 0  0.02763102111592854 0.075 0  0.03453877639491068 0.075 0  0.04144653167389282 0.075 0  0.04835428695287496 0.075 0  0.05526204223185709 0.075 0  0.06216979751083922 0.075 0  0.06907755278982136 0.075 0  0.07598530806880351 0.075 0  0.08289306334778564 0.075 0  0.08980081862676777 0.075 0  0.09670857390574991 0.075 0  0.103616329184732 0.075 0  0.1105240844637142 0.075 0  0.1174318397426963 0.075 0  0.1243395950216784 0.075 0  0.1312473503006606 0.075 0  0.1381551055796427 0.075 0  0.1812473503006606 0.075 0  0.2243395950216784 0.075 0  0.2674318397426963 0.075 0  0.3105240844637142 0.075 0  0.3536163291847321 0.075 0  0.3967085739057499 0.075 0  0.4398008186267678 0.075 0  0.4828930633477856 0.075 0  0.5259853080688035 0.075 0  0.5690775527898213 0.075 0  0.6121697975108393 0.075 0  0.655262042231857 0.075 0  0.6983542869528749 0.075 0  0.7414465316738929 0.075 0  0.7845387763949107 0.075 0  0.8276310211159286 0.075 0  0.8707232658369465 0.075 0  0.9138155105579643 0.075 0  0.9569077552789821 0.075 0  1 0.075 0  0 0.1 0  0.006907755278982136 0.1 0  0.01381551055796427 0.1 0  0.02072326583694641 0.1 0  0.02763102111592854 0.1 0  0.03453877639491068 0.1 0  0.04144653167389282 0.1 0  0.04835428695287496 0.1 0  0.05526204223185709 0.1 0  0.06216979751083922 0.1 0  0.06907755278982136 0.1 0  0.07598530806880351 0.1 0  0.08289306334778564 0.1 0  0.08980081862676777 0.1 0  0.09670857390574991 0.1 0  0.103616329184732 0.1 0  0.1105240844637142 0.1 0  0.1174318397426963 0.1 0  0.1243395950216784 0.1 0  0.1312473503006606 0.1 0  0.1381551055796427 0.1 0  0.1812473503006606 0.1 0  0.2243395950216784 0.1 0  0.2674318397426963 0.1 0  0.3105240844637142 0.1 0  0.3536163291847321 0.1 0  0.3967085739057499 0.1 0  0.4398008186267678 0.1 0  0.4828930633477856 0.1 0  0.5259853080688035 0.1 0  0.5690775527898213 0.1 0  0.6121697975108393 0.1 0  0.655262042231857 0.1 0  0.6983542869528749 0.1 0  0.7414465316738929 0.1 0  0.7845387763949107 0.1 0  0.8276310211159286 0.1 0  0.8707232658369465 0.1 0  0.9138155105579643 0.1 0  0.9569077552789821 0.1 0  1 0.1 0  0 0.125 0  0.006907755278982136 0.125 0  0.01381551055796427 0.125 0  0.02072326583694641 0.125 0  0.02763102111592854 0.125 0  0.03453877639491068 0.125 0  0.04144653167389282 0.125 0  0.04835428695287496 0.125 0  0.05526204223185709 0.125 0  0.06216979751083922 0.125 0  0.06907755278982136 0.125 0  0.07598530806880351 0.125 0  0.08289306334778564 0.125 0  0.08980081862676777 0.125 0  0.09670857390574991 0.125 0  0.103616329184732 0.125 0  0.1105240844637142 0.125 0  0.1174318397426963 0.125 0  0.1243395950216784 0.125 0  0.1312473503006606 0.125 0  0.1381551055796427 0.125 0  0.1812473503006606 0.125 0  0.2243395950216784 0.125 0  0.2674318397426963 0.125 0  0.3105240844637142 0.125 0  0.3536163291847321 0.125 0  0.3967085739057499 0.125 0  0.4398008186267678 0.125 0  0.4828930633477856 0.125 0  0.5259853080688035 0.125 0  0.5690775527898213 0.125 0  0.6121697975108393 0.125 0  0.655262042231857 0.125 0  0.6983542869528749 0.125 0  0.7414465316738929 0.125 0  0.7845387763949107 0.125 0  0.8276310211159286 0.125 0  0.8707232658369465 0.125 0  0.9138155105579643 0.125 0  0.9569077552789821 0.125 0  1 0.125 0  0 0.15 0  0.006907755278982136 0.15 0  0.01381551055796427 0.15 0  0.02072326583694641 0.15 0  0.02763102111592854 0.15 0  0.03453877639491068 0.15 0  0.04144653167389282 0.15 0  0.04835428695287496 0.15 0  0.05526204223185709 0.15 0  0.06216979751083922 0.15 0  0.06907755278982136 0.15 0  0.07598530806880351 0.15 0  0.08289306334778564 0.15 0  0.08980081862676777 0.15 0  0.09670857390574991 0.15 0  0.103616329184732 0.15 0  0.1105240844637142 0.15 0  0.1174318397426963 0.15 0  0.1243395950216784 0.15 0  0.1312473503006606 0.15 0  0.1381551055796427 0.15 0  0.1812473503006606 0.15 0  0.2243395950216784 0.15 0  0.2674318397426963 0.15 0  0.3105240844637142 0.15 0  0.3536163291847321 0.15 0  0.3967085739057499 0.15 0  0.4398008186267678 0.15 0  0.4828930633477856 0.15 0  0.5259853080688035 0.15 0  0.5690775527898213 0.15 0  0.6121697975108393 0.15 0  0.655262042231857 0.15 0  0.6983542869528749 0.15 0  0.7414465316738929 0.15 0  0.7845387763949107 0.15 0  0.8276310211159286 0.15 0  0.8707232658369465 0.15 0  0.9138155105579643 0.15 0  0.9569077552789821 0.15 0  1 0.15 0  0 0.175 0  0.006907755278982136 0.175 0  0.01381551055796427 0.175 0  0.02072326583694641 0.175 0  0.02763102111592854 0.175 0  0.03453877639491068 0.175 0  0.04144653167389282 0.175 0  0.04835428695287496 0.175 0  0.05526204223185709 0.175 0  0.06216979751083922 0.175 0  0.06907755278982136 0.175 0  0.07598530806880351 0.175 0  0.08289306334778564 0.175 0  0.08980081862676777 0.175 0  0.09670857390574991 0.175 0  0.103616329184732 0.175 0  0.1105240844637142 0.175 0  0.1174318397426963 0.175 0  0.1243395950216784 0.175 0  0.1312473503006606 0.175 0  0.1381551055796427 0.175 0  0.1812473503006606 0.175 0  0.2243395950216784 0.175 0  0.2674318397426963 0.175 0  0.3105240844637142 0.175 0  0.3536163291847321 0.175 0  0.3967085739057499 0.175 0  0.4398008186267678 0.175 0  0.4828930633477856 0.175 0  0.5259853080688035 0.175 0  0.5690775527898213 0.175 0  0.6121697975108393 0.175 0  0.655262042231857 0.175 0  0.6983542869528749 0.175 0  0.7414465316738929 0.175 0  0.7845387763949107 0.175 0  0.8276310211159286 0.175 0  0.8707232658369465 0.175 0  0.9138155105579643 0.175 0  0.9569077552789821 0.175 0  1 0.175 0  0 0.2 0  0.006907755278982136 0.2 0  0.01381551055796427 0.2 0  0.02072326583694641 0.2 0  0.02763102111592854 0.2 0  0.03453877639491068 0.2 0  0.04144653167389282 0.2 0  0.04835428695287496 0.2 0  0.05526204223185709 0.2 0  0.06216979751083922 0.2 0  0.06907755278982136 0.2 0  0.07598530806880351 0.2 0  0.08289306334778564 0.2 0  0.08980081862676777 0.2 0  0.09670857390574991 0.2 0  0.103616329184732 0.2 0  0.1105240844637142 0.2 0  0.1174318397426963 0.2 0  0.1243395950216784 0.2 0  0.1312473503006606 0.2 0  0.1381551055796427 0.2 0  0.1812473503006606 0.2 0  0.2243395950216784 0.2 0  0.2674318397426963 0.2 0  0.3105240844637142 0.2 0  0.3536163291847321 0.2 0  0.3967085739057499 0.2 0  0.4398008186267678 0.2 0  0.4828930633477856 0.2 0  0.5259853080688035 0.2 0  0.5690775527898213 0.2 0  0.6121697975108393 0.2 0  0.655262042231857 0.2 0  0.6983542869528749 0.2 0  0.7414465316738929 0.2 0  0.7845387763949107 0.2 0  0.8276310211159286 0.2 0  0.8707232658369465 0.2 0  0.9138155105579643 0.2 0  0.9569077552789821 0.2 0  1 0.2 0  0 0.225 0  0.006907755278982136 0.225 0  0.0138
[...]
<PointData  Scalars="f_1003"> 
<DataArray  type="Float64"  Name="f_1003"  format="ascii">9.7014964516634383e-01  4.8062152454405871e-01  2.3593131337659393e-01  1.1328779794538660e-01  5.1747812909948752e-02  2.0908726575983517e-02  5.4500279898645173e-03  -2.2954720863544928e-03  -6.1768425251356937e-03  -8.1219963747129562e-03  -9.0973647524191324e-03  -9.5869938689853423e-03  -9.8333375298662075e-03  -9.9577965916031550e-03  -1.0021154890405370e-02  -1.0053843700909620e-02  -1.0071100999164979e-02  -1.0080563150167648e-02  -1.0086001468837933e-02  -1.0088932760778853e-02  -1.0118175881074548e-02  -1.0108433661865635e-02  -1.0102347836656521e-02  -1.0100440443319134e-02  -1.0099966688303749e-02  -1.0099924320626312e-02  -1.0099989857047116e-02  -1.0100067984055036e-02  -1.0100134207894249e-02  -1.0100184614838855e-02  -1.0100220660091032e-02  -1.0100244778868252e-02  -1.0100259221610248e-02  -1.0100265824324378e-02  -1.0100266047504636e-02  -1.0100261103971933e-02  -1.0100252145627757e-02  -1.0100240528215216e-02  -1.0100228148249195e-02  -1.0100217688939473e-02  -1.0100218955232198e-02  9.6476611327851070e-01  4.7831005946015343e-01  2.3488843179899496e-01  1.1279572111538323e-01  5.1607368060990061e-02  2.0926209061552556e-02  5.5408004777943677e-03  -2.1799861393979277e-03  -6.0584644781366739e-03  -8.0107034999297166e-03  -8.9968008176162708e-03  -9.4979700539563738e-03  -9.7554138012820747e-03  -9.8900756190347817e-03  -9.9626324499768742e-03  -1.0003557939747127e-02  -1.0028189318097827e-02  -1.0044257332372538e-02  -1.0055360522231112e-02  -1.0065697886658230e-02  -1.0051604959330308e-02  -1.0082164012512274e-02  -1.0093761342955639e-02  -1.0097797613577852e-02  -1.0099176141135341e-02  -1.0099680592272883e-02  -1.0099899793911933e-02  -1.0100018871157043e-02  -1.0100095698610220e-02  -1.0100149484808127e-02  -1.0100187720643077e-02  -1.0100214139274973e-02  -1.0100231056970402e-02  -1.0100240094907221e-02  -1.0100242446411979e-02  -1.0100239026852507e-02  -1.0100230620564667e-02  -1.0100218110145011e-02  -1.0100203063590782e-02  -1.0100190340717909e-02  -1.0100220340538238e-02  9.6493543192246178e-01  4.7875650660884467e-01  2.3528648676620981e-01  1.1310304860182993e-01  5.1866107351199821e-02  2.1139573137352870e-02  5.7201161373515389e-03  -2.0285699216740592e-03  -5.9300483340645124e-03  -7.9017625519331568e-03  -8.9045245511893360e-03  -9.4200581660239830e-03  -9.6899273045070351e-03  -9.8353684321016172e-03  -9.9173110581598466e-03  -9.9664555510924121e-03  -9.9983406599947755e-03  -1.0020991076541912e-02  -1.0037961876783999e-02  -1.0054625896572382e-02  -1.0041247469406791e-02  -1.0079945145597723e-02  -1.0093276798898732e-02  -1.0097666340736335e-02  -1.0099118125703811e-02  -1.0099639641383535e-02  -1.0099864592976803e-02  -1.0099987211232014e-02  -1.0100067171558647e-02  -1.0100123972766127e-02  -1.0100165107426179e-02  -1.0100194282911425e-02  -1.0100213815308462e-02  -1.0100225358118076e-02  -1.0100230165936103e-02  -1.0100229233670209e-02  -1.0100223417184303e-02  -1.0100213599412837e-02  -1.0100200923098879e-02  -1.0100186213432647e-02  -1.0100213717875322e-02  9.6535773971005379e-01  4.7907547413556811e-01  2.3573367499162162e-01  1.1349701918106411e-01  5.2208940963273581e-02  2.1430342435005734e-02  5.9665557708419451e-03  -1.8195265406746102e-03  -5.7523820872716607e-03  -7.7506296360415590e-03  -8.7760140374325921e-03  -9.3109822013297851e-03  -9.5976545148624397e-03  -9.7577077719675151e-03  -9.8524319004168678e-03  -9.9128344055588475e-03  -9.9546972999620745e-03  -9.9863221830351970e-03  -1.0011262692021608e-02  -1.0036102500834363e-02  -1.0026633784676451e-02  -1.0076625294822825e-02  -1.0092555489012653e-02  -1.0097504437571984e-02  -1.0099067915645906e-02  -1.0099610603053621e-02  -1.0099839919603485e-02  -1.0099964268137192e-02  -1.0100045801005604e-02  -1.0100104332040793e-02  -1.0100147317386444e-02  -1.0100178403258872e-02  -1.0100199872580273e-02  -1.0100213375947357e-02  -1.0100220187433425e-02  -1.0100221326618570e-02  -1.0100217642240545e-02  -1.0100209883761200e-02  -1.0100198831869869e-02  -1.0100185251121841e-02  -1.0100203884277429e-02  9.6576641587019285e-01  4.7946132369493732e-01  2.3622290512881150e-01  1.1392877902372672e-01  5.2587116877077462e-02  2.1752702044305280e-02  6.2412702478595082e-03  -1.5855465284173975e-03  -5.5529283205692625e-03  -7.5806189375179200e-03  -8.6312378892880303e-03  -9.1879458684404319e-03  -9.4934343314906980e-03  -9.6698507001906457e-03  -9.7788803077990937e-03  -9.8518749010295982e-03  -9.9049051568539520e-03  -9.9465849198782253e-03  -9.9805134459261986e-03  -1.0013848381663651e-02  -1.0008744829405088e-02  -1.0072450509749519e-02  -1.0091604841199251e-02  -1.0097295413717226e-02  -1.0099017949034379e-02  -1.0099590927362394e-02  -1.0099824749604473e-02  -1.0099949412777561e-02  -1.0100031098636700e-02  -1.0100090170872576e-02  -1.0100134041041570e-02  -1.0100166255684289e-02  -1.0100189027480380e-02  -1.0100203967768272e-02  -1.0100212330817246e-02  -1.0100215116324024e-02  -1.0100213122172803e-02  -1.0100206976391400e-02  -1.0100197224257371e-02  -1.0100185376519239e-02  -1.0100192905919679e-02  9.6614753660799602e-01  4.7985257340149035e-01  2.3674383203970448e-01  1.1438999782629970e-01  5.2990034735314426e-02  2.2095418999016125e-02  6.5327733645528640e-03  -1.3374903323225581e-03  -5.3415360243719325e-03  -7.4004140634453802e-03  -8.4777409614804761e-03  -9.0574572163503834e-03  -9.3828630931065676e-03  -9.5766003115409764e-03  -9.7007673392904351e-03  -9.7870731335822567e-03  -9.8518880392381263e-03  -9.9041328641929008e-03  -9.9476046290617477e-03  -9.9896448762170492e-03  -9.9891061794876793e-03  -1.0067815771214024e-02  -1.0090535090274431e-02  -1.0097061257788363e-02  -1.0098970232809775e-02  -1.0099579751268614e-02  -1.0099818188981150e-02  -1.0099941956937933e-02  -1.0100022537058303e-02  -1.0100081083970329e-02  -1.0100124967451395e-02  -1.0100157598655747e-02  -1.0100181083616351e-02  -1.0100196961938463e-02  -1.0100206435183619e-02  -1.0100210453932256e-02  -1.0100209753550332e-02  -1.0100204889763759e-02  -1.0100196421620721e-02  -1.0100186176214675e-02  -1.0100182225134190e-02  9.6649869445005610e-01  4.8024161274003518e-01  2.3727489110620217e-01  1.1486416237697779e-01  5.3404872897451258e-02  2.2448254142547187e-02  6.8326323943411395e-03  -1.0825481574881016e-03  -5.1244320873722318e-03  -7.2154311508674743e-03  -8.3202193539950800e-03  -8.9235640714735651e-03  -9.2694071211359037e-03  -9.4809061717496101e-03  -9.6205876018177899e-03  -9.7205281754684254e-03  -9.7974115958493306e-03  -9.8604451697347235e-03  -9.9137039511983435e-03  -9.9644743500101034e-03  -9.9687213522486207e-03  -1.0062990948740459e-02  -1.0089421831102591e-02  -1.0096820221664136e-02  -1.0098926845958891e-02  -1.0099576031179660e-02  -1.0099819133235674e-02  -1.0099941111987731e-02  -1.0100019564405094e-02  -1.0100076670880979e-02  -1.0100119796167907e-02  -1.0100152200837795e-02  -1.0100175858610413e-02  -1.0100192210901105e-02  -1.0100202384764815e-02  -1.0100207266785816e-02  -1.0100207537008955e-02  -1.0100203727592441e-02  -1.0100196486670814e-02  -1.0100187519567136e-02  -1.0100172820597010e-02  9.6681614089396162e-01  4.8062121723488210e-01  2.3780508603992481e-01  1.1533984998889631e-01  5.3821282996317332e-02  2.2802384047509575e-02  7.1334263299332578e-03  -8.2694083842316647e-04  -4.9068576054718581e-03  -7.0301102416977157e-03  -8.1624495737964448e-03  -8.7894831876652972e-03  -9.1558038789382335e-03  -9.3850912717180126e-03  -9.5403034129705518e-03  -9.6538855865958371e-03  -9.7428410225550797e-03  -9.8166500009223383e-03  -9.8797146472609752e-03  -9.9390814498802778e-03  -9.9483213294161484e-03  -1.0058174827517637e-02  -1.0088319573919381e-02  -1.0096586696542136e-02  -1.0098890143575859e-02  -1.0099579083364462e-02  -1.0099826557458906e-02  -1.0099946073077543e-02  -1.0100021605170401e-02  -1.0100076516370501e-02  -1.0100118218234444e-02  -1.0100149824848555e-02  -1.0100173169378841e-02  -1.0100189577213455e-02  -1.0100200085785055e-02  -1.0100205514153165e-02  -1.0100206498784224e-02  -1.0100203576402518e-02  -1.0100197446345976e-02  -1.0100189444681355e-02  -1.0100165341389676e-02  9.6709721616700284e-01  4.8098462909507600e-01  2.3832356376782943e-01  1.1580722982994054e-01  5.4230530185908704e-02  2.3150294450601031e-02  7.4287272579312783e-03  -5.7615096862194512e-04  -4.6934827627179397e-03  -6.8484260028166153e-03  -8.0078113569762282e-03  -8.6580847686036112e-03  -9.0444858435989074e-03  -9.2912104587247902e-03  -9.4616424938175295e-03  -9.5885887170391593e-03  -9.6893687506524571e-03  -9.7737204321026051e-03  -9.8464056344081622e-03  -9.9140822832991821e-03  -9.9284704393163021e-03  -1.0053519661757380e-02  -1.0087268747645796e-02  -1.0096371553945693e-02  -1.0098862324636110e-02  -1.0099588577785630e-02  -1.0099839634007703e-02  -1.0099956094714856e-02  -1.0100028088475460e-02  -1.0100080195021186e-02  -1.0100119916379557e-02  -1.0100150233928499e-02  -1.0100172835070973e-02  -1.0100188925875483e-02  -1.0100199451179287e-02  -1.0100205161191879e-02  -1.0100206656942305e-02  -1.0100204482450029e-02  -1.0100199322449864e-02  -1.0100192058777274e-02  -1.0100160198508420e-02  9.6733975965605212e-01  4.8132592002376134e-01  2.3882056030184409e-01  1.1625725328105710e-01  5.4624669897288154e-02  2.3485228902619330e-02  7.7127975923922867e-03  -3.3505907958142713e-04  -4.4884692283440946e-03  -6.6739301592665312e-03  -7.8593339898986141e-03  -8.5319475878574743e-03  -8.9376416351160462e-03  -9.2011133275645054e-03  -9.3861586846437414e-03  -9.5259326192528374e-03  -9.6380614491127607e-03  -9.7325221163014272e-03  -9.8144559390009930e-03  -9.8900100462498419e-03  -9.9096248796040291e-03  -1.0049145387711924e-02  -1.0086300077315929e-02  -1.0096182832888849e-02  -1.0098845162883124e-02  -1.0099604375463771e-02  -1.0099857725248372e-02  -1.0099970522933150e-02  -1.0100038472123953e-02  -1.0100087283574515e-02  -1.0100124560641507e-02  -1.0100153170842133e-02  -1.0100174660744674e-02  -1.0100190116905793e-02  -1.0100200389463011e-02  -1.0100206163096218e-02  -1.0100208006111755e-02  -1.0100206457077562e-02  -1.0100202133450540e-02  -1.0100195476316161e-02  -1.0100157625267135e-02  9.6754204617306838e-01  4.8163980322414501e-01  2.3928729668148274e-01  1.1668178552397544e-01  5.4996536529535379e-02  2.3801093524734345e-02  7.9804722523942693e-03  -1.0804765030486350e-04  -4.2955454217055112e-03  -6.5097998832330754e-03  -7.7197254358077868e-03  -8.4133767042003215e-03  -8.8372279833807688e-03  -9.1164538579498241e-03  -9.3152414795483370e-03  -9.4670746100840066e-03  -9.5898708703998203e-03  -9.6938249060923628e-03  -9.7844667178404419e-03  -9.8673317385897571e-03  -9.8921642752041045e-03  -1.0045148418879464e-02  -1.0085437260460307e-02  -1.0096026365072633e-02  -1.0098839909701791e-02  -1.0099626372220978e-02  -1.0099880321948989e-02  -1.0099988790935124e-02  -1.0100052253032198e-02  -1.0100097369412593e-02  -1.0100131824668533e-02  -1.0100158379850420e-02  -1.0100178449036887e-02  -1.0100193002359368e-02  -1.0100202798389291e-02  -1.0100208457608931e-02  -1.0100210513886205e-02  -1.0100209483262448e-02  -1.0100205886793050e-02  -1.0100199786160349e-02  -1.0100157717799629e-02  9.6770278813259158e-01  4.8192163073210703e-01  2.3971594507834346e-01  1.1707355785530497e-01  5.5339734199778397e-02  2.4092451632498076e-02  8.2271460537132798e-03  1.0097879681649753e-04  -4.1180301130826534e-03  -6.3588604368573281e-03  -7.5913913784868749e-03  -8.3044181200829896e-03  -8.7449804649211982e-03  -9.0386981685044634e-03  -9.2501217824770485e-03  -9.4130391197297415e-03  -9.5456385746959908e-03  -9.6583082078090712e-03  -9.7569669262381562e-03  -9.8464561126617289e-03  -9.8764089442049622e-03  -1.0041607189883027e-02  -1.0084698676022730e-02  -1.0095906265962244e-02  -1.0098847301391184e-02  -1.0099654396277663e-02  -1.0099906975490326e-02  -1.0100010395778805e-02  -1.0100068965839926e-02  -1.0100110055844734e-02  -1.0100141382995823e-02  -1.0100165599915344e-02  -1.0100183994637043e-02  -1.0100197425445059e-02  -1.0100206562187403e-02  -1.0100211962874722e-02  -1.0100214122440091e-02  -1.0100213519850918e-02  -1.0100210571173461e-02  -1.0100205037003360e-02  -1.0100160463675935e-02  9.6782112975702317e-01  4.8216739138170173e-01  2.4009962993431735e-01  1.1742616493184312e-01  5.5648627205235446e-02  2.4354516110561480e-02  8.4487679545649230e-03  2.8858850055303001e-04  -3.9588380360368568e-03  -6.2235914509757729e-03  -7.4764418351805926e-03  -8.2068652267863699e-03  -8.6624193904160183e-03  -8.9691296849818414e-03  -9.1918763623133250e-03  -9.3647215833181051e-03  -9.5060994457085816e-03  -9.6265645190737638e-03  -9.7324168605655743e-03  -9.8277382575219837e-03  -9.8626291282123118e-03  -1.0038585575082347e-02  -1.0084098500241561e-02  -1.0095825305049723e-02  -1.0098867616586764e-02  -1.0099688158478360e-02  -1.0099937245583666e-02  -1.0100034871004374e-02  -1.0100088174351454e-02  -1.0100124961562897e-02  -1.0100152915197638e-02  -1.0100174568651216e-02  -1.0100191086489910e-02  -1.0100203219310679e-02  -1.0100211551312955e-02  -1.0100216578335248e-02  -1.0100218751751520e-02  -1.0100218504076795e-02  -1.0100216151739491e-02  -1.0100211233218564e-02  -1.0100165763177644e-02  9.6789664602091419e-01  4.8237370871712337e-01  2.4043242586849015e-01  1.1773406353884663e-01  5.5918338929593775e-02  2.4583147158364533e-02  8.6418383159860852e-03  4.5181965746063412e-04  -3.8204826141295914e-03  -6.1061296003188442e-03  -7.3766938413029519e-03  -8.1222615133413126e-03  -8.5908524999232880e-03  -8.9088517669291024e-03  -9.1414303679197458e-03  -9.3228908411190498e-03  -9.4718839747154424e-03  -9.5991016976225210e-03  -9.7112103400665249e-03  -9.8114822453728989e-03  -9.8510497719742421e-03  -1.0036134898466739e-02  -1.0083647423505001e-02  -1.0095785176817224e-02  -1.0098900750493425e-02  -1.0099727239828521e-02  -1.0099970668473325e-02  -1.0100061763728407e-02  -1.0100109460990367e-02  -1.0100141718240838e-02  -1.0100166106851678e-02  -1.0100185023766878e-02  -1.0100199509298215e-02  -1.0100210209038884e-02  -1.0100217623789643e-02  -1.0100222187099441e-02  -1.0100224303029384e-02  -1.0100224353464657e-02  -1.0100222568409310e-02  -1.0100218336431113e-02  -1.0100173446235613e-02  9.6792934213282600e-01  4.8253784046437437e-01  2.4070935693448700e-01  1.1799257163738315e-01  5.6144750900915648e-02  2.4774851422149226e-02  8.8034079036583418e-03  5.8817926942010730e-04  -3.7050772250271941e-03  -6.0082699258518207e-03  -7.2936727938025143e-03  -8.0519019133182320e-03  -8.5313763048900856e-03  -8.8587890389046128e-03  -9.0995586405030714e-03  -9.2881904319932432e-03  -9.4435195283043560e-03  -9.5763442413984660e-03  -9.6936759321877789e-03  -9.7979425828562654e-03  -9.8418529386129234e-03  -1.0034295054179859e-02  -1.0083353090254155e-02  -1.0095786690472298e-02  -1.0098946287137782e-02  -1.0099771100962850e-02  -1.0100006742786596e-02  -1.0100090619384560e-02  -1.0100132417790843e-02  -1.0100159967053482e-02  -1.0100180649209119e-02  -1.0100196704276337e-02  -1.0100209044963752e-02  -1.0100218213075654e-02  -1.0100224627400413e-02  -1.0100228658893703e-02  -1.0100230661973309e-02  -1.0100230967811156e-02  -1.0100229736652233e-02  -1.0100226269926297e-02  -1.0100183286564623e-02  9.6791965322300000e-01  4.8265767819214411e-01  2.4092639627946619e-01  1.1819786798052330e-01  5.6324502331947718e-02  2.4926781479071104e-02  8.9310773500540334e-03  6.9564257451536671e-04  -3.6143358088552681e-03  -5.9314664814457624e-03  -7.2286131275537549e-03  -7.9968334994798898e-03  -8.4848767906483338e-03  -8.8196880935459288e-03  -9.0668864117932346e-03  -9.2611392858798092e-03  -9.4214310297836661e-03  -9.5586339775499303e-03  -9.6800776079681884e-03  -9.7873249781065350e-03  -9.8351790126140690e-03  -1.0033095100209615e-02  -1.0083220352624546e-02  -1.0095829895266955e-02  -1.0099003560337780e-02  -1.0099819101742437e-02  -1.0100044927835958e-02  -1.0100120974130053e-02  -1.0100156640296877e-02  -1.0100179355855899e-02  -1.0100196238841071e-02  -1.0100209351511721e-02  -1.0100219474314323e-02  -1.0100227045389973e-02  -1.0100232402286566e-02  -1.0100235853152882e-02  -1.0100237701863744e-02  -1.0100238231527269e-02  -1.0100237549934613e-02  -1.0100234924386163e-02  -1.0100195013959153e-02  9.6786844417243023e-01  4.8273174711672739e-01  2.4108046592993393e-01  1.1834699188538700e-01  5.6454989876350697e-02  2.5036735569534240e-02  9.0229968605833287e-03  7.7265273269875483e-04  -3.5495731996838158e-03  -5.8768326805192263e-03  -7.1824586751365951e-03  -7.9578558538454178e-03  -8.4520297930585353e-03  -8.7921178710392150e-03  -9.0438896826301150e-03  -9.2421321000130570e-03  -9.4059413287107159e-03  -9.5462304338664941e-03  -9.6706150916761290e-03  -9.7797867424413727e-03  -9.8311272939574194e-03  -1.0032553557570030e-02  -1.0083251406057602e-02  -1.0095914157696386e-02  -1.0099071700351663e-02  -1.0099870523402046e-02  -1.0100084649413506e-02  -1.0100152353343434e-02  -1.0100181724906340e-02  -1.0100199537733683e-02  -1.0100212577706024e-02  -1.0100222710273372e-02  -1.0100230578909278e-02  -1.0100236517765497e-02  -1.0100240783670804e-02  -1.0100243622062062e-02  -1.0100245286555894e-02  -1.0100246016375079e-02  -1.0100245883182949e-02  -1.0100244164072104e-02  -1.0100208325254566e-02  9.6777700950715462e-01  4.8275920598654359e-01  2.4116943666688984e-01  1.1843784309710584e-01  5.6534367482133197e-02  2.5103157440808922e-02  9.0778660469098896e-03  8.1812064825652342e-04  -3.5117053129378739e-03  -5.8451414917560871e-03  -7.1558628691105464e-03  -7.9355212747463377e-03  -8.4333012085014633e-03  -8.7764698702463128e-03  -9.0308954332317080e-03  -9.2314395472838651e-03  -9.3972714045142316e-03  -9.5393110415194875e-03  -9.6654240496180099e-03  -9.7754370017731403e-03  -9.8297562905128016e-03  -1.0032678553191326e-02  -1.0083445855111596e-02  -1.0096038205335200e-02  -1.0099149666913523e-02  -1.0099924589123573e-02  -1.0100125309301209e-02  -1.0100184274598752e-02  -1.0100207269270398e-02  -1.0100220171224928e-02  -1.0100229373981516e-02  -1.0100236530317330e-02  -1.0100242143021607e-02  -1.0100246442176559e-02  -1.0100249604574695e-02  -1.0100251813488805e-02  -1.0100253273426705e-02  -1.0100254184512675e-02  -1.0100254596790422e-02  -1.0100253832998582e-02  -1.0100222894221519e-02  9.6764707333134503e-01  4.8273984700944317e-01  2.4119212794829564e-01  1.1846918170589961e-01  5.6561546302906086e-02  2.5125136252406092e-02  9.0949338267505200e-03  8.3142486443385684e-04  -3.5012492555760301e-03  -5.8368255534833931e-03  -7.1491888597406458e-03  -7.9301348968861592e-03  -8.4289471151423098e-03  -8.7729582700784743e-03  -9.0280817434682560e-03  -9.2292083946754443e-03  -9.3955404813572778e-03  -9.5379712480075894e-03  -9.6645761942189649e-03  -9.7743368093206971e-03  -9.8310838629461442e-03  -1.0033467884344220e-02  -1.0083800741181080e-02  -1.0096200149354811e-02  -1.0099236271230178e-02  -1.0099980481383740e-02  -1.0100166296082222e-02  -1.0100216253270169e-02  -1.0100232875168570e-02  -1.0100240922174465e-02  -1.0100246343797052e-02  -1.0100250568268538e-02  -1.0100253955803188e-02  -1.0100256633201922e-02  -1.0100258698459990e-02  -1.0100260273786276e-02  -1.0100261516287295e-02  -1.0100262591729324e-02  -1.0100263540847918e-02  -1.0100263760863610e-02  -1.0100238380521310e-02  9.6748078928467751e-01  4.8267409580676607e-01  2.4114830786026376e-01  1.1844062809527438e-01  5.6536194643024035e-02  2.5102406518124686e-02  9.0739983628883216e-03  8.1241149960375179e-04  -3.5183233924424846e-03  -5.8519772421411790e-03  -7.1625095851055864e-03  -7.9417547625163457e-03  -8.4390138445439161e-03  -8.7816200008804281e-03  -9.0354778632724918e-03  -9.2354615721807753e-03  -9.4007660945135563e-03  -9.5422245816194785e-03  -9.6680793429911593e-03  -9.7764992068657460e-03  -9.8350872989278176e-03  -1.0034909046670506e-02  -1.0084310551713140e-02  -1.0096397