<?xml version="1.0"?>
<VTKFile type="UnstructuredGrid"  version="0.1"  >
<UnstructuredGrid>
<Piece  NumberOfPoints="4881" NumberOfCells="9600">
<Points>
<DataArray  type="Float64"  NumberOfComponents="3"  format="ascii">0 0 0  0.006907755278982136 0 0  0.01381551055796427 0 0  0.02072326583694641 0 0  0.02763102111592854 0 0  0.03453877639491068 0 0  0.04144653167389282 0 0  0.04835428695287496 0 0  0.05526204223185709 0 0  0.06216979751083922 0 0  0.06907755278982136 0 0  0.07598530806880351 0 0  0.08289306334778564 0 0  0.08980081862676777 0 0  0.09670857390574991 0 0  0.103616329184732 0 0  0.1105240844637142 0 0  0.1174318397426963 0 0  0.1243395950216784 0 0  0.1312473503006606 0 0  0.1381551055796427 0 0  0.1812473503006606 0 0  0.2243395950216784 0 0  0.2674318397426963 0 0  0.3105240844637142 0 0  0.3536163291847321 0 0  0.3967085739057499 0 0  0.4398008186267678 0 0  0.4828930633477856 0 0  0.5259853080688035 0 0  0.5690775527898213 0 0  0.6121697975108393 0 0  0.655262042231857 0 0  0.6983542869528749 0 0  0.7414465316738929 0 0  0.7845387763949107 0 0  0.8276310211159286 0 0  0.8707232658369465 0 0  0.9138155105579643 0 0  0.9569077552789821 0 0  1 0 0  0 0.025 0  0.006907755278982136 0.025 0  0.01381551055796427 0.025 0  0.02072326583694641 0.025 0  0.02763102111592854 0.025 0  0.03453877639491068 0.025 0  0.04144653167389282 0.025 0  0.04835428695287496 0.025 0  0.05526204223185709 0.025 0  0.06216979751083922 0.025 0  0.06907755278982136 0.025 0  0.07598530806880351 0.025 0  0.08289306334778564 0.025 0  0.08980081862676777 0.025 0  0.09670857390574991 0.025 0  0.103616329184732 0.025 0  0.1105240844637142 0.025 0  0.1174318397426963 0.025 0  0.1243395950216784 0.025 0  0.1312473503006606 0.025 0  0.1381551055796427 0.025 0  0.1812473503006606 0.025 0  0.2243395950216784 0.025 0  0.2674318397426963 0.025 0  0.3105240844637142 0.025 0  0.3536163291847321 0.025 0  0.3967085739057499 0.025 0  0.4398008186267678 0.025 0  0.4828930633477856 0.025 0  0.5259853080688035 0.025 0  0.5690775527898213 0.025 0  0.6121697975108393 0.025 0  0.655262042231857 0.025 0  0.6983542869528749 0.025 0  0.7414465316738929 0.025 0  0.7845387763949107 0.025 0  0.8276310211159286 0.025 0  0.8707232658369465 0.025 0  0.9138155105579643 0.025 0  0.9569077552789821 0.025 0  1 0.025 0  0 0.05 0  0.006907755278982136 0.05 0  0.01381551055796427 0.05 0  0.02072326583694641 0.05 0  0.02763102111592854 0.05 0  0.03453877639491068 0.05 0  0.04144653167389282 0.05 0  0.04835428695287496 0.05 0  0.05526204223185709 0.05 0  0.06216979751083922 0.05 0  0.06907755278982136 0.05 0  0.07598530806880351 0.05 0  0.08289306334778564 0.05 0  0.08980081862676777 0.05 0  0.09670857390574991 0.05 0  0.103616329184732 0.05 0  0.1105240844637142 0.05 0  0.1174318397426963 0.05 0  0.1243395950216784 0.05 0  0.1312473503006606 0.05 0  0.1381551055796427 0.05 0  0.1812473503006606 0.05 0  0.2243395950216784 0.05 0  0.2674318397426963 0.05 0  0.3105240844637142 0.05 0  0.3536163291847321 0.05 0  0.3967085739057499 0.05 0  0.4398008186267678 0.05 0  0.4828930633477856 0.05 0  0.5259853080688035 0.05 0  0.5690775527898213 0.05 0  0.6121697975108393 0.05 0  0.655262042231857 0.05 0  0.6983542869528749 0.05 0  0.7414465316738929 0.05 0  0.7845387763949107 0.05 0  0.8276310211159286 0.05 0  0.8707232658369465 0.05 0  0.9138155105579643 0.05 0  0.9569077552789821 0.05 0  1 0.05 0  0 0.075 0  0.006907755278982136 0.075 0  0.01381551055796427 0.075 0  0.02072326583694641 0.075 0  0.02763102111592854 0.075 0  0.03453877639491068 0.075 0  0.04144653167389282 0.075 0  0.04835428695287496 0.075 0  0.05526204223185709 0.075 0  0.06216979751083922 0.075 0  0.06907755278982136 0.075 0  0.07598530806880351 0.075 0  0.08289306334778564 0.075 0  0.08980081862676777 0.075 0  0.09670857390574991 0.075 0  0.103616329184732 0.075 0  0.1105240844637142 0.075 0  0.1174318397426963 0.075 0  0.1243395950216784 0.075 0  0.1312473503006606 0.075 0  0.1381551055796427 0.075 0  0.1812473503006606 0.075 0  0.2243395950216784 0.075 0  0.2674318397426963 0.075 0  0.3105240844637142 0.075 0  0.3536163291847321 0.075 0  0.3967085739057499 0.075 0  0.4398008186267678 0.075 0  0.4828930633477856 0.075 0  0.5259853080688035 0.075 0  0.5690775527898213 0.075 0  0.6121697975108393 0.075 0  0.655262042231857 0.075 0  0.6983542869528749 0.075 0  0.7414465316738929 0.075 0  0.7845387763949107 0.075 0  0.8276310211159286 0.075 0  0.8707232658369465 0.075 0  0.9138155105579643 0.075 0  0.9569077552789821 0.075 0  1 0.075 0  0 0.1 0  0.006907755278982136 0.1 0  0.01381551055796427 0.1 0  0.02072326583694641 0.1 0  0.02763102111592854 0.1 0  0.03453877639491068 0.1 0  0.04144653167389282 0.1 0  0.04835428695287496 0.1 0  0.05526204223185709 0.1 0  0.06216979751083922 0.1 0  0.06907755278982136 0.1 0  0.07598530806880351 0.1 0  0.08289306334778564 0.1 0  0.08980081862676777 0.1 0  0.09670857390574991 0.1 0  0.103616329184732 0.1 0  0.1105240844637142 0.1 0  0.1174318397426963 0.1 0  0.1243395950216784 0.1 0  0.1312473503006606 0.1 0  0.1381551055796427 0.1 0  0.1812473503006606 0.1 0  0.2243395950216784 0.1 0  0.2674318397426963 0.1 0  0.3105240844637142 0.1 0  0.3536163291847321 0.1 0  0.3967085739057499 0.1 0  0.4398008186267678 0.1 0  0.4828930633477856 0.1 0  0.5259853080688035 0.1 0  0.5690775527898213 0.1 0  0.6121697975108393 0.1 0  0.655262042231857 0.1 0  0.6983542869528749 0.1 0  0.7414465316738929 0.1 0  0.7845387763949107 0.1 0  0.8276310211159286 0.1 0  0.8707232658369465 0.1 0  0.9138155105579643 0.1 0  0.9569077552789821 0.1 0  1 0.1 0  0 0.125 0  0.006907755278982136 0.125 0  0.01381551055796427 0.125 0  0.02072326583694641 0.125 0  0.02763102111592854 0.125 0  0.03453877639491068 0.125 0  0.04144653167389282 0.125 0  0.04835428695287496 0.125 0  0.05526204223185709 0.125 0  0.06216979751083922 0.125 0  0.06907755278982136 0.125 0  0.07598530806880351 0.125 0  0.08289306334778564 0.125 0  0.08980081862676777 0.125 0  0.09670857390574991 0.125 0  0.103616329184732 0.125 0  0.1105240844637142 0.125 0  0.1174318397426963 0.125 0  0.1243395950216784 0.125 0  0.1312473503006606 0.125 0  0.1381551055796427 0.125 0  0.1812473503006606 0.125 0  0.2243395950216784 0.125 0  0.2674318397426963 0.125 0  0.3105240844637142 0.125 0  0.3536163291847321 0.125 0  0.3967085739057499 0.125 0  0.4398008186267678 0.125 0  0.4828930633477856 0.125 0  0.5259853080688035 0.125 0  0.5690775527898213 0.125 0  0.6121697975108393 0.125 0  0.655262042231857 0.125 0  0.6983542869528749 0.125 0  0.7414465316738929 0.125 0  0.7845387763949107 0.125 0  0.8276310211159286 0.125 0  0.8707232658369465 0.125 0  0.9138155105579643 0.125 0  0.9569077552789821 0.125 0  1 0.125 0  0 0.15 0  0.006907755278982136 0.15 0  0.01381551055796427 0.15 0  0.02072326583694641 0.15 0  0.02763102111592854 0.15 0  0.03453877639491068 0.15 0  0.04144653167389282 0.15 0  0.04835428695287496 0.15 0  0.05526204223185709 0.15 0  0.06216979751083922 0.15 0  0.06907755278982136 0.15 0  0.07598530806880351 0.15 0  0.08289306334778564 0.15 0  0.08980081862676777 0.15 0  0.09670857390574991 0.15 0  0.103616329184732 0.15 0  0.1105240844637142 0.15 0  0.1174318397426963 0.15 0  0.1243395950216784 0.15 0  0.1312473503006606 0.15 0  0.1381551055796427 0.15 0  0.1812473503006606 0.15 0  0.2243395950216784 0.15 0  0.2674318397426963 0.15 0  0.3105240844637142 0.15 0  0.3536163291847321 0.15 0  0.3967085739057499 0.15 0  0.4398008186267678 0.15 0  0.4828930633477856 0.15 0  0.5259853080688035 0.15 0  0.5690775527898213 0.15 0  0.6121697975108393 0.15 0  0.655262042231857 0.15 0  0.6983542869528749 0.15 0  0.7414465316738929 0.15 0  0.7845387763949107 0.15 0  0.8276310211159286 0.15 0  0.8707232658369465 0.15 0  0.9138155105579643 0.15 0  0.9569077552789821 0.15 0  1 0.15 0  0 0.175 0  0.006907755278982136 0.175 0  0.01381551055796427 0.175 0  0.02072326583694641 0.175 0  0.02763102111592854 0.175 0  0.03453877639491068 0.175 0  0.04144653167389282 0.175 0  0.04835428695287496 0.175 0  0.05526204223185709 0.175 0  0.06216979751083922 0.175 0  0.06907755278982136 0.175 0  0.07598530806880351 0.175 0  0.08289306334778564 0.175 0  0.08980081862676777 0.175 0  0.09670857390574991 0.175 0  0.103616329184732 0.175 0  0.1105240844637142 0.175 0  0.1174318397426963 0.175 0  0.1243395950216784 0.175 0  0.1312473503006606 0.175 0  0.1381551055796427 0.175 0  0.1812473503006606 0.175 0  0.2243395950216784 0.175 0  0.2674318397426963 0.175 0  0.3105240844637142 0.175 0  0.3536163291847321 0.175 0  0.3967085739057499 0.175 0  0.4398008186267678 0.175 0  0.4828930633477856 0.175 0  0.5259853080688035 0.175 0  0.5690775527898213 0.175 0  0.6121697975108393 0.175 0  0.655262042231857 0.175 0  0.6983542869528749 0.175 0  0.7414465316738929 0.175 0  0.7845387763949107 0.175 0  0.8276310211159286 0.175 0  0.8707232658369465 0.175 0  0.9138155105579643 0.175 0  0.9569077552789821 0.175 0  1 0.175 0  0 0.2 0  0.006907755278982136 0.2 0  0.01381551055796427 0.2 0  0.02072326583694641 0.2 0  0.02763102111592854 0.2 0  0.03453877639491068 0.2 0  0.04144653167389282 0.2 0  0.04835428695287496 0.2 0  0.05526204223185709 0.2 0  0.06216979751083922 0.2 0  0.06907755278982136 0.2 0  0.07598530806880351 0.2 0  0.08289306334778564 0.2 0  0.08980081862676777 0.2 0  0.09670857390574991 0.2 0  0.103616329184732 0.2 0  0.1105240844637142 0.2 0  0.1174318397426963 0.2 0  0.1243395950216784 0.2 0  0.1312473503006606 0.2 0  0.1381551055796427 0.2 0  0.1812473503006606 0.2 0  0.2243395950216784 0.2 0  0.2674318397426963 0.2 0  0.3105240844637142 0.2 0  0.3536163291847321 0.2 0  0.3967085739057499 0.2 0  0.4398008186267678 0.2 0  0.4828930633477856 0.2 0  0.5259853080688035 0.2 0  0.5690775527898213 0.2 0  0.6121697975108393 0.2 0  0.655262042231857 0.2 0  0.6983542869528749 0.2 0  0.7414465316738929 0.2 0  0.7845387763949107 0.2 0  0.8276310211159286 0.2 0  0.8707232658369465 0.2 0  0.9138155105579643 0.2 0  0.9569077552789821 0.2 0  1 0.2 0  0 0.225 0  0.006907755278982136 0.225 0  0.0138
[...]
<PointData  Vectors="f_1000"> 
<DataArray  type="Float64"  Name="f_1000"  NumberOfComponents="3" format="ascii">-3.2415088503513074e-24 -0.0000000000000000e+00 0.0000000000000000e+00  -5.0961555493172389e-20 -0.0000000000000000e+00 0.0000000000000000e+00  -2.8864155511290093e-20 -0.0000000000000000e+00 0.0000000000000000e+00  -1.3761198260193672e-19 0.0000000000000000e+00 0.0000000000000000e+00  2.7994594499903760e-20 0.0000000000000000e+00 0.0000000000000000e+00  1.9225071700072749e-19 0.0000000000000000e+00 0.0000000000000000e+00  -3.3888587730206698e-21 0.0000000000000000e+00 0.0000000000000000e+00  -1.5344853314263891e-19 0.0000000000000000e+00 0.0000000000000000e+00  8.2850348599973896e-20 0.0000000000000000e+00 0.0000000000000000e+00  1.1906398272572984e-20 0.0000000000000000e+00 0.0000000000000000e+00  2.5158969216939854e-20 0.0000000000000000e+00 0.0000000000000000e+00  8.1159027729389788e-21 0.0000000000000000e+00 0.0000000000000000e+00  1.2253419815398183e-22 0.0000000000000000e+00 0.0000000000000000e+00  -8.4946888195655979e-22 0.0000000000000000e+00 0.0000000000000000e+00  -3.8734990507208761e-22 0.0000000000000000e+00 0.0000000000000000e+00  2.2461749061621567e-19 0.0000000000000000e+00 0.0000000000000000e+00  -4.2645338852682859e-21 0.0000000000000000e+00 0.0000000000000000e+00  9.7977436992584221e-22 0.0000000000000000e+00 0.0000000000000000e+00  2.0401745850480505e-21 0.0000000000000000e+00 0.0000000000000000e+00  2.3122417802772605e-22 0.0000000000000000e+00 0.0000000000000000e+00  -1.4961006707511589e-22 1.5160486796945074e-20 0.0000000000000000e+00  0.0000000000000000e+00 -7.8072921712347071e-21 0.0000000000000000e+00  0.0000000000000000e+00 -2.7325522599321435e-20 0.0000000000000000e+00  0.0000000000000000e+00 1.4638672821065076e-20 0.0000000000000000e+00  0.0000000000000000e+00 -2.8929188730349785e-21 0.0000000000000000e+00  0.0000000000000000e+00 0.0000000000000000e+00 0.0000000000000000e+00  0.0000000000000000e+00 6.5190889629809753e-19 0.0000000000000000e+00  5.6139292177002402e-21 -3.8750549277637076e-21 0.0000000000000000e+00  6.4630383955090418e-21 2.8905660590032813e-21 0.0000000000000000e+00  3.4171743064262393e-21 -2.8753174414813395e-21 0.0000000000000000e+00  3.4171743064262212e-21 6.4816154854207800e-21 0.0000000000000000e+00  2.9290065483653444e-21 2.9015260028471754e-21 0.0000000000000000e+00  9.7633551612178090e-22 -9.8353583016530894e-22 0.0000000000000000e+00  -4.8816775806089026e-22 1.2298963070041965e-21 0.0000000000000000e+00  2.9290065483653429e-21 -8.7965462329707412e-22 0.0000000000000000e+00  0.0000000000000000e+00 1.4771264315611334e-20 0.0000000000000000e+00  0.0000000000000000e+00 7.1111165382704219e-19 0.0000000000000000e+00  -9.9596472260435357e-21 4.6355797266705919e-21 0.0000000000000000e+00  -1.1511153054763457e-21 1.9518230428086760e-21 0.0000000000000000e+00  4.1494259435175797e-21 -1.4638672821065107e-20 0.0000000000000000e+00  -3.4898028171473731e-21 1.2415903170875487e-21 0.0000000000000000e+00  -6.1191769407348693e-20 -0.0000000000000000e+00 0.0000000000000000e+00  1.6497392382301074e-06 -2.3269274369006350e-06 0.0000000000000000e+00  2.6663189174510515e-06 -1.1342286104099901e-06 0.0000000000000000e+00  2.7255667580338433e-06 2.1210258726999685e-07 0.0000000000000000e+00  2.3295378450171069e-06 8.4134437807372304e-07 0.0000000000000000e+00  1.7965247307954882e-06 9.6642574548427296e-07 0.0000000000000000e+00  1.3065374017236073e-06 8.4427156198852236e-07 0.0000000000000000e+00  9.1866768843475055e-07 6.4890039513660502e-07 0.0000000000000000e+00  6.3672821939049019e-07 4.6244224670310447e-07 0.0000000000000000e+00  4.4194501273225863e-07 3.1402611275411427e-07 0.0000000000000000e+00  3.1151489936248754e-07 2.0655054801317222e-07 0.0000000000000000e+00  2.2560114661968278e-07 1.3312550756530517e-07 0.0000000000000000e+00  1.6924870765497720e-07 8.4838288014147337e-08 0.0000000000000000e+00  1.3202510207892607e-07 5.3873259946836803e-08 0.0000000000000000e+00  1.0700559637756993e-07 3.4324294862661438e-08 0.0000000000000000e+00  8.9742518277066009e-08 2.2075061230431883e-08 0.0000000000000000e+00  7.7441885465172183e-08 1.4395124126439570e-08 0.0000000000000000e+00  6.8374467672520378e-08 9.5341979532920603e-09 0.0000000000000000e+00  6.1491682318202581e-08 6.3700124837278304e-09 0.0000000000000000e+00  5.6262556437669206e-08 3.5486709872942091e-09 0.0000000000000000e+00  5.0958287816229774e-08 3.2935903437121610e-09 0.0000000000000000e+00  4.2509947138715424e-08 5.0741869916170925e-09 0.0000000000000000e+00  2.7949159744484798e-08 1.1234543001847675e-09 0.0000000000000000e+00  2.0663992345864450e-08 4.9773144023328241e-10 0.0000000000000000e+00  1.6744243155898504e-08 5.4709662500741367e-10 0.0000000000000000e+00  1.4036131698590754e-08 5.9051012257298756e-10 0.0000000000000000e+00  1.1816624299068176e-08 5.7437896605220742e-10 0.0000000000000000e+00  9.8818929131315776e-09 5.2742362638365700e-10 0.0000000000000000e+00  8.1761184586259060e-09 4.7045859742026233e-10 0.0000000000000000e+00  6.6773048476278954e-09 4.1326852218911579e-10 0.0000000000000000e+00  5.3682752306630680e-09 3.5978827309303666e-10 0.0000000000000000e+00  4.2315884940352393e-09 3.1125143672885005e-10 0.0000000000000000e+00  3.2501424812373406e-09 2.6759953745239880e-10 0.0000000000000000e+00  2.4087135443770412e-09 2.2805881975837439e-10 0.0000000000000000e+00  1.6954344990317075e-09 1.9136248384733359e-10 0.0000000000000000e+00  1.1031076614066966e-09 1.5583285819810984e-10 0.0000000000000000e+00  6.3032241748061411e-10 1.1946679490255522e-10 0.0000000000000000e+00  2.8196727233501697e-10 8.0301585594390740e-11 0.0000000000000000e+00  6.7411931806247876e-11 3.8090412181520901e-11 0.0000000000000000e+00  -1.0244369916245338e-11 1.1490975120179807e-12 0.0000000000000000e+00  0.0000000000000000e+00 0.0000000000000000e+00 0.0000000000000000e+00  -5.6563487394861043e-20 -0.0000000000000000e+00 0.0000000000000000e+00  2.7184804687127801e-06 -9.7155655132716540e-06 0.0000000000000000e+00  4.7683248227362887e-06 -4.4054762083502901e-06 0.0000000000000000e+00  5.0393724465789570e-06 7.4373640744474937e-07 0.0000000000000000e+00  4.3652892839184867e-06 3.1154900466486538e-06 0.0000000000000000e+00  3.3833219934714153e-06 3.5641685548825823e-06 0.0000000000000000e+00  2.4591820577845924e-06 3.0922968456833090e-06 0.0000000000000000e+00  1.7221427343937496e-06 2.3550360573124825e-06 0.0000000000000000e+00  1.1858852598770077e-06 1.6597628745725367e-06 0.0000000000000000e+00  8.1673158124327173e-07 1.1119760046818828e-06 0.0000000000000000e+00  5.7123446861870243e-07 7.1965841816997284e-07 0.0000000000000000e+00  4.1108190141451401e-07 4.5503642018318624e-07 0.0000000000000000e+00  3.0728413530984497e-07 2.8366643951032221e-07 0.0000000000000000e+00  2.3965688710539006e-07 1.7582625807050727e-07 0.0000000000000000e+00  1.9487553146216672e-07 1.0931745295657184e-07 0.0000000000000000e+00  1.6445504526194648e-07 6.8842151640671416e-08 0.0000000000000000e+00  1.4312361903754344e-07 4.4385301911827940e-08 0.0000000000000000e+00  1.2765318806179694e-07 2.9608141555178423e-08 0.0000000000000000e+00  1.1603026125041634e-07 2.0754257372713053e-08 0.0000000000000000e+00  1.0733365093062028e-07 1.4828250120231442e-08 0.0000000000000000e+00  9.9394963269995798e-08 1.4827486842591089e-08 0.0000000000000000e+00  6.7233061938459526e-08 1.1651823330361971e-08 0.0000000000000000e+00  4.7911199090068274e-08 5.6116933273461261e-09 0.0000000000000000e+00  3.7225839251813853e-08 3.3049401889279882e-09 0.0000000000000000e+00  3.0741533334242157e-08 2.6768398645644681e-09 0.0000000000000000e+00  2.5975999367720968e-08 2.4362327239341799e-09 0.0000000000000000e+00  2.1986426358615277e-08 2.2326214475714190e-09 0.0000000000000000e+00  1.8478614962668683e-08 2.0148054295193465e-09 0.0000000000000000e+00  1.5366035898774701e-08 1.7918720389308735e-09 0.0000000000000000e+00  1.2614466210087320e-08 1.5764958162134863e-09 0.0000000000000000e+00  1.0197698309483063e-08 1.3761363506829838e-09 0.0000000000000000e+00  8.0886641181857454e-09 1.1936004043086298e-09 0.0000000000000000e+00  6.2601295436458751e-09 1.0284897994557492e-09 0.0000000000000000e+00  4.6873011753882948e-09 8.7818230586763191e-10 0.0000000000000000e+00  3.3504212767453226e-09 7.3836814008485611e-10 0.0000000000000000e+00  2.2369572422482287e-09 6.0336936293055047e-10 0.0000000000000000e+00  1.3431319370841648e-09 4.6660240766463825e-10 0.0000000000000000e+00  6.7387811965205149e-10 3.2204718125135856e-10 0.0000000000000000e+00  2.3833808535871982e-10 1.6930355809409510e-10 0.0000000000000000e+00  3.3428501582615018e-11 3.0544961521162902e-11 0.0000000000000000e+00  0.0000000000000000e+00 -7.2712895908368193e-22 0.0000000000000000e+00  -1.0974739535417999e-19 -0.0000000000000000e+00 0.0000000000000000e+00  3.7531936805503032e-06 -2.0893884653227644e-05 0.0000000000000000e+00  6.6099406112837366e-06 -9.5259777626451388e-06 0.0000000000000000e+00  7.0007534835072396e-06 1.4683748105104514e-06 0.0000000000000000e+00  6.0787402395055346e-06 6.5641452229293556e-06 0.0000000000000000e+00  4.7224854360474993e-06 7.5313601497303056e-06 0.0000000000000000e+00  3.4397192799671723e-06 6.5326877556197790e-06 0.0000000000000000e+00  2.4128329418612804e-06 4.9648173124114153e-06 0.0000000000000000e+00  1.6632235548328719e-06 3.4868465916968366e-06 0.0000000000000000e+00  1.1457469190984427e-06 2.3239915500146843e-06 0.0000000000000000e+00  8.0083600239554561e-07 1.4932117882747027e-06 0.0000000000000000e+00  5.7550887627449823e-07 9.3486181557818852e-07 0.0000000000000000e+00  4.2943344923902012e-07 5.7512747444954933e-07 0.0000000000000000e+00  3.3439124950288415e-07 3.5037029469371494e-07 0.0000000000000000e+00  2.7167499112410758e-07 2.1312041521011207e-07 0.0000000000000000e+00  2.2933003405621508e-07 1.3072166101892156e-07 0.0000000000000000e+00  1.9991222779465190e-07 8.1862243184321824e-08 0.0000000000000000e+00  1.7888449529259318e-07 5.3105055719247716e-08 0.0000000000000000e+00  1.6343959523207326e-07 3.6419467685000709e-08 0.0000000000000000e+00  1.5229946931667736e-07 2.5864368573252821e-08 0.0000000000000000e+00  1.4245796287661408e-07 2.3817353689020609e-08 0.0000000000000000e+00  8.6596466394237019e-08 1.5963728585082525e-08 0.0000000000000000e+00  6.2626409540668564e-08 1.0060362693354980e-08 0.0000000000000000e+00  5.0048644827090138e-08 7.0729610026395183e-09 0.0000000000000000e+00  4.1956663128144893e-08 5.8474182238904496e-09 0.0000000000000000e+00  3.5728669859077675e-08 5.2278944699893241e-09 0.0000000000000000e+00  3.0409482247428852e-08 4.7424826005960005e-09 0.0000000000000000e+00  2.5687732148306306e-08 4.2714187004038429e-09 0.0000000000000000e+00  2.1468241247094623e-08 3.8058253635400153e-09 0.0000000000000000e+00  1.7713928744404926e-08 3.3587817203140297e-09 0.0000000000000000e+00  1.4396677188902927e-08 2.9413955924309145e-09 0.0000000000000000e+00  1.1486386234897748e-08 2.5586970357755964e-09 0.0000000000000000e+00  8.9515731323275527e-09 2.2102372805079947e-09 0.0000000000000000e+00  6.7626557577092664e-09 1.8912697766793100e-09 0.0000000000000000e+00  4.8953248915507209e-09 1.5936698939969149e-09 0.0000000000000000e+00  3.3332784777235271e-09 1.3066935620816845e-09 0.0000000000000000e+00  2.0698371462418797e-09 1.0181677155211857e-09 0.0000000000000000e+00  1.1073090777750434e-09 7.1764555350395375e-10 0.0000000000000000e+00  4.5147000489636736e-10 4.0552517075987384e-10 0.0000000000000000e+00  9.6601546196515710e-11 1.1825255732200689e-10 0.0000000000000000e+00  0.0000000000000000e+00 0.0000000000000000e+00 0.0000000000000000e+00  3.8420482004056571e-20 -0.0000000000000000e+00 0.0000000000000000e+00  4.6460199371936739e-06 -3.5283989323689419e-05 0.0000000000000000e+00  8.1969848680521605e-06 -1.6075290718546205e-05 0.0000000000000000e+00  8.6751884094378408e-06 2.4047223578655878e-06 0.0000000000000000e+00  7.5337313240748787e-06 1.0990922303718829e-05 0.0000000000000000e+00  5.8580146294629316e-06 1.2621981023671688e-05 0.0000000000000000e+00  4.2734702477475964e-06 1.0946803107505078e-05 0.0000000000000000e+00  3.0043143929091106e-06 8.3126115699624706e-06 0.0000000000000000e+00  2.0766146295432609e-06 5.8294352018268386e-06 0.0000000000000000e+00  1.4348475250794487e-06 3.8762480134003982e-06 0.0000000000000000e+00  1.0058380367656067e-06 2.4817504535721498e-06 0.0000000000000000e+00  7.2452247297276228e-07 1.5455837086886107e-06 0.0000000000000000e+00  5.4135022816807780e-07 9.4350496948958088e-07 0.0000000000000000e+00  4.2161696621546087e-07 5.6836849389521947e-07 0.0000000000000000e+00  3.4227513963004731e-07 3.4023933063581712e-07 0.0000000000000000e+00  2.8855908233717919e-07 2.0412227308738764e-07 0.0000000000000000e+00  2.5123883922943983e-07 1.2412841734234080e-07 0.0000000000000000e+00  2.2466125611182908e-07 7.7642301122792164e-08 0.0000000000000000e+00  2.0529572980277321e-07 5.1098911333574003e-08 0.0000000000000000e+00  1.9152906685855857e-07 3.5048169808308991e-08 0.0000000000000000e+00  1.7991952724571583e-07 3.0199674250129704e-08 0.0000000000000000e+00  1.0094592709099856e-07 1.8440741989468396e-08 0.0000000000000000e+00  7.2571079618499319e-08 1.3833433272189519e-08 0.0000000000000000e+00  5.9051731316533210e-08 1.1080693709846565e-08 0.0000000000000000e+00  5.0243194361055812e-08 9.5968354879994079e-09 0.0000000000000000e+00  4.3190966857824235e-08 8.6575613797226860e-09 0.0000000000000000e+00  3.7009424467330312e-08 7.8695302537397666e-09 0.0000000000000000e+00  3.1440789662094664e-08 7.1058758760960207e-09 0.0000000000000000e+00  2.6415047785907030e-08 6.3530348039250161e-09 0.0000000000000000e+00  2.1907969280053309e-08 5.6274640313118273e-09 0.0000000000000000e+00  1.7898577007960959e-08 4.9454395366109288e-09 0.0000000000000000e+00  1.4360332985335500e-08 4.3154450610843258e-09 0.0000000000000000e+00  1.1262802379924169e-08 3.7378360087091927e-09 0.0000000000000000e+00  8.5757801436405531e-09 3.2061599096249557e-09 0.0000000000000000e+00  6.2733443489506932e-09 2.7085368069306871e-09 0.0000000000000000e+00  4.3370142745957943e-09 2.2290407546065306e-09 0.0000000000000000e+00  2.7574821841312693e-09 1.7498584273906935e-09 0.0000000000000000e+00  1.5339797070441427e-09 1.2562691189371158e-09 0.0000000000000000e+00  6.6974945811555731e-10 7.4912987016860517e-10 0.0000000000000000e+00  1.6281344647062117e-10 2.7522779228535033e-10 0.0000000000000000e+00  0.0000000000000000e+00 0.0000000000000000e+00 0.0000000000000000e+00  -9.2493752972728659e-21 -0.0000000000000000e+00 0.0000000000000000e+00  5.3957267030811227e-06 -5.2208929511681172e-05 0.0000000000000000e+00  9.5092764037067073e-06 -2.3769772298941035e-05 0.0000000000000000e+00  1.0049875055444192e-05 3.5110431350297057e-06 0.0000000000000000e+00  8.7298420393478455e-06 1.6198768220778227e-05 0.0000000000000000e+00  6.7965971826562003e-06 1.8607197928356803e-05 0.0000000000000000e+00  4.9690201472687455e-06 1.6134932679109022e-05 0.0000000000000000e+00  3.5041479311076511e-06 1.2246222721420377e-05 0.0000000000000000e+00  2.4317385729589748e-06 8.5809360857813962e-06 0.0000000000000000e+00  1.6880644230433564e-06 5.6984602771104730e-06 0.0000000000000000e+00  1.1892035650596289e-06 3.6411227711467288e-06 0.0000000000000000e+00  8.6055002091340362e-07 2.2606350950718779e-06 0.0000000000000000e+00  6.4527417481482463e-07 1.3734709333071485e-06 0.0000000000000000e+00  5.0355059107355989e-07 8.2136241903956621e-07 0.0000000000000000e+00  4.0890164491414628e-07 4.8623541608035700e-07 0.0000000000000000e+00  3.4433396004809038e-07 2.8685274363779638e-07 0.0000000000000000e+00  2.9919538556417039e-07 1.7019884486722867e-07 0.0000000000000000e+00  2.6693892096442931e-07 1.0287424772526837e-07 0.0000000000000000e+00  2.4344834087831000e-07 6.4754559796910568e-08 0.0000000000000000e+00  2.2676988537396109e-07 4.2418296552529304e-08 0.0000000000000000e+00  2.1324799591462590e-07 3.4140342113929376e-08 0.0000000000000000e+00  1.1116726237203719e-07 1.9182180125859706e-08 0.0000000000000000e+00  7.8465631823497602e-08 1.6641106851636632e-08 0.0000000000000000e+00  6.4542602183757931e-08 1.4834867027141618e-08 0.0000000000000000e+00  5.5680343973521873e-08 1.3505308668254145e-08 0.0000000000000000e+00  4.8370531602470213e-08 1.2415360144144283e-08 0.0000000000000000e+00  4.1772559521565733e-08 1.1377516530900899e-08 0.0000000000000000e+00  3.5713122698335754e-08 1.0328292494894352e-08 0.0000000000000000e+00  3.0173451195852152e-08 9.2764090822996463e-09 0.0000000000000000e+00  2.5157488656282648e-08 8.2513143412723816e-09 0.0000000000000000e+00  2.0660525599653428e-08 7.2785577524802141e-09 0.0000000000000000e+00  1.6665804385877839e-08 6.3723980838996220e-09 0.0000000000000000e+00  1.3148648148689907e-08 5.5355251615204016e-09 0.0000000000000000e+00  1.0081868602775016e-08 4.7608197356631212e-09 0.0000000000000000e+00  7.4405886546565519e-09 4.0333570585514247e-09 0.0000000000000000e+00  5.2058778363274642e-09 3.3325552871158067e-09 0.0000000000000000e+00  3.3668370797815070e-09 2.6353748888058240e-09 0.0000000000000000e+00  1.9206833020272400e-09 1.9228395444993753e-09 0.0000000000000000e+00  8.7064413152371404e-10 1.1944991513351372e-09 0.0000000000000000e+00  2.2386340116127016e-10 4.9971370011925914e-10 0.0000000000000000e+00  -1.3182953530119802e-20 4.4120865776280296e-23 0.0000000000000000e+00  -1.2095336927202991e-19 -0.0000000000000000e+00 0.0000000000000000e+00  6.0073343492066456e-06 -7.1031369877744675e-05 0.0000000000000000e+00  1.0558355062914113e-05 -3.2320614126509895e-05 0.0000000000000000e+00  1.1134634276096320e-05 4.7412372591557475e-06 0.0000000000000000e+00  9.6731193323706455e-06 2.1989141035446562e-05 0.0000000000000000e+00  7.5416002519372505e-06 2.5261712010432358e-05 0.0000000000000000e+00  5.5281990756945280e-06 2.1903282680278819e-05 0.0000000000000000e+00  3.9133587940058046e-06 1.6619724933316374e-05 0.0000000000000000e+00  2.7291822217726984e-06 1.1640011287694995e-05 0.0000000000000000e+00  1.9057411312224461e-06 7.7241318788515105e-06 0.0000000000000000e+00  1.3511650525735619e-06 4.9295928824940459e-06 0.0000000000000000e+00  9.8382038844385380e-07 3.0548373031942686e-06 0.0000000000000000e+00  7.4151472855293556e-07 1.8504431456372384e-06 0.0000000000000000e+00  5.8063742787416344e-07 1.1013181290223635e-06 0.0000000000000000e+00  4.7216117348373669e-07 6.4699589214855246e-07 0.0000000000000000e+00  3.9742274900715959e-07 3.7707176434568820e-07 0.0000000000000000e+00  3.4469084481771983e-07 2.1949303815103420e-07 0.0000000000000000e+00  3.0672792178869776e-07 1.2888323774384259e-07 0.0000000000000000e+00  2.7896816849397737e-07 7.7798490569290708e-08 0.0000000000000000e+00  2.5915393656769421e-07 4.8484448030572268e-08 0.0000000000000000e+00  2.4357284921357710e-07 3.6239441067725376e-08 0.0000000000000000e+00  1.1811378908683155e-07 1.8369217889159572e-08 0.0000000000000000e+00  8.1035245860833681e-08 1.8394960816811762e-08 0.0000000000000000e+00  6.6970498191530895e-08 1.8045909136095694e-08 0.0000000000000000e+00  5.8492460884176837e-08 1.7252428524183701e-08 0.0000000000000000e+00  5.1372369506187472e-08 1.6227972789368105e-08 0.0000000000000000e+00  4.4747618497508132e-08 1.5045446352868192e-08 0.0000000000000000e+00  3.8523897904292015e-08 1.3757812203411019e-08 0.0000000000000000e+00  3.2744247330413135e-08 1.2425217844016273e-08 0.0000000000000000e+00  2.7450833475346514e-08 1.1103523730774669e-08 0.0000000000000000e+00  2.2662395160907949e-08 9.8338720511098401e-09 0.0000000000000000e+00  1.8377117551624014e-08 8.6397323517607150e-09 0.0000000000000000e+00  1.4580018099797996e-08 7.5283078701375757e-09 0.0000000000000000e+00  1.1250034340289575e-08 6.4933685889725267e-09 0.0000000000000000e+00  8.3657204684284008e-09 5.5181189420425308e-09 0.0000000000000000e+00  5.9095250015345512e-09 4.5782340350204712e-09 0.0000000000000000e+00  3.8704943548067123e-09 3.6460127182613135e-09 0.0000000000000000e+00  2.2456306612351526e-09 2.69